# vtk DataFile Version 2.0
TET
ASCII

DATASET UNSTRUCTURED_GRID
POINTS 27 float
-0.131103 -0.131103 -0.131103
0.131103 -0.131103 -0.131103
-0.131103 0.131103 -0.131103
0.131103 0.131103 -0.131103
-0.131103 -0.131103 0.131103
0.131103 -0.131103 0.131103
-0.131103 0.131103 0.131103
0.131103 0.131103 0.131103
0 -0.131103 -0.131103
0.131103 0 -0.131103
0 0.131103 -0.131103
-0.131103 0 -0.131103
0 -0.131103 0.131103
0.131103 0 0.131103
0 0.131103 0.131103
-0.131103 0 0.131103
-0.131103 -0.131103 0
0.131103 -0.131103 0
0.131103 0.131103 0
-0.131103 0.131103 0
0 0 -0.131103
0 -0.131103 0
0 0 0.131103
0 0.131103 0
-0.131103 0 0
0.131103 0 0
0 0 -6.93889390390723e-18
CELLS 8 72
8  26 21 16 24 20 8 0 11
8  25 17 21 26 9 1 8 20
8  23 26 24 19 10 20 11 2
8  18 25 26 23 3 9 20 10
8  22 12 4 15 26 21 16 24
8  13 5 12 22 25 17 21 26
8  14 22 15 6 23 26 24 19
8  7 13 22 14 18 25 26 23
CELL_TYPES 8
12
12
12
12
12
12
12
12
CELL_DATA 8
SCALARS theta_0 float
LOOKUP_TABLE theta_0
344.827586206897
344.827586206897
344.827586206897
344.827586206897
344.827586206897
344.827586206897
344.827586206897
344.827586206897
SCALARS theta_1 float
LOOKUP_TABLE theta_1
3103.44827586207
3103.44827586207
3103.44827586207
3103.44827586207
3103.44827586207
3103.44827586207
3103.44827586207
3103.44827586207
