# vtk DataFile Version 2.0
TET
ASCII

DATASET UNSTRUCTURED_GRID
POINTS 8 float
-0.131103 -0.131103 -0.131103
0.131103 -0.131103 -0.131103
-0.131103 0.131103 -0.131103
0.131103 0.131103 -0.131103
-0.131103 -0.131103 0.131103
0.131103 -0.131103 0.131103
-0.131103 0.131103 0.131103
0.131103 0.131103 0.131103
CELLS 1 9
8  7 5 4 6 3 1 0 2
CELL_TYPES 1
12
CELL_DATA 1
SCALARS theta_0 float
LOOKUP_TABLE theta_0
344.827586206897
SCALARS theta_1 float
LOOKUP_TABLE theta_1
3103.44827586207
