# vtk DataFile Version 2.0
tet
ASCII
DATASET UNSTRUCTURED_GRID
POINTS 729 double
-0.131103 -0.131103 -0.131103
0.131103 -0.131103 -0.131103
-0.131103 0.131103 -0.131103
0.131103 0.131103 -0.131103
-0.131103 -0.131103 0.131103
0.131103 -0.131103 0.131103
-0.131103 0.131103 0.131103
0.131103 0.131103 0.131103
0.000000 -0.131103 -0.131103
0.131103 0.000000 -0.131103
0.000000 0.131103 -0.131103
-0.131103 0.000000 -0.131103
0.000000 -0.131103 0.131103
0.131103 0.000000 0.131103
0.000000 0.131103 0.131103
-0.131103 0.000000 0.131103
-0.131103 -0.131103 0.000000
0.131103 -0.131103 0.000000
0.131103 0.131103 0.000000
-0.131103 0.131103 0.000000
0.000000 0.000000 -0.131103
0.000000 -0.131103 0.000000
0.000000 0.000000 0.131103
0.000000 0.131103 0.000000
-0.131103 0.000000 0.000000
0.131103 0.000000 0.000000
0.000000 0.000000 -0.000000
-0.065551 -0.131103 -0.131103
0.000000 -0.065551 -0.131103
-0.065551 0.000000 -0.131103
-0.131103 -0.065551 -0.131103
-0.065551 -0.131103 0.000000
0.000000 -0.065551 -0.000000
-0.065551 0.000000 -0.000000
-0.131103 -0.065551 0.000000
-0.131103 -0.131103 -0.065551
0.000000 -0.131103 -0.065551
0.000000 0.000000 -0.065551
-0.131103 0.000000 -0.065551
0.065551 -0.131103 -0.131103
0.131103 -0.065551 -0.131103
0.065551 0.000000 -0.131103
0.065551 -0.131103 0.000000
0.131103 -0.065551 0.000000
0.065551 0.000000 -0.000000
0.131103 -0.131103 -0.065551
0.131103 0.000000 -0.065551
0.000000 0.065551 -0.131103
-0.065551 0.131103 -0.131103
-0.131103 0.065551 -0.131103
0.000000 0.065551 -0.000000
-0.065551 0.131103 0.000000
-0.131103 0.065551 0.000000
0.000000 0.131103 -0.065551
-0.131103 0.131103 -0.065551
0.131103 0.065551 -0.131103
0.065551 0.131103 -0.131103
0.131103 0.065551 0.000000
0.065551 0.131103 0.000000
0.131103 0.131103 -0.065551
-0.065551 -0.131103 0.131103
0.000000 -0.065551 0.131103
-0.065551 0.000000 0.131103
-0.131103 -0.065551 0.131103
-0.131103 -0.131103 0.065551
0.000000 -0.131103 0.065551
0.000000 0.000000 0.065551
-0.131103 0.000000 0.065551
0.065551 -0.131103 0.131103
0.131103 -0.065551 0.131103
0.065551 0.000000 0.131103
0.131103 -0.131103 0.065551
0.131103 0.000000 0.065551
0.000000 0.065551 0.131103
-0.065551 0.131103 0.131103
-0.131103 0.065551 0.131103
0.000000 0.131103 0.065551
-0.131103 0.131103 0.065551
0.131103 0.065551 0.131103
0.065551 0.131103 0.131103
0.131103 0.131103 0.065551
-0.065551 -0.065551 -0.131103
-0.065551 -0.131103 -0.065551
-0.065551 -0.065551 -0.000000
-0.065551 0.000000 -0.065551
-0.131103 -0.065551 -0.065551
0.000000 -0.065551 -0.065551
0.065551 -0.065551 -0.131103
0.065551 -0.131103 -0.065551
0.065551 -0.065551 -0.000000
0.065551 0.000000 -0.065551
0.131103 -0.065551 -0.065551
-0.065551 0.065551 -0.131103
-0.065551 0.065551 -0.000000
-0.065551 0.131103 -0.065551
-0.131103 0.065551 -0.065551
0.000000 0.065551 -0.065551
0.065551 0.065551 -0.131103
0.065551 0.065551 -0.000000
0.065551 0.131103 -0.065551
0.131103 0.065551 -0.065551
-0.065551 -0.131103 0.065551
-0.065551 -0.065551 0.131103
-0.065551 0.000000 0.065551
-0.131103 -0.065551 0.065551
0.000000 -0.065551 0.065551
0.065551 -0.131103 0.065551
0.065551 -0.065551 0.131103
0.065551 0.000000 0.065551
0.131103 -0.065551 0.065551
-0.065551 0.065551 0.131103
-0.065551 0.131103 0.065551
-0.131103 0.065551 0.065551
0.000000 0.065551 0.065551
0.065551 0.065551 0.131103
0.065551 0.131103 0.065551
0.131103 0.065551 0.065551
-0.065551 -0.065551 -0.065551
0.065551 -0.065551 -0.065551
-0.065551 0.065551 -0.065551
0.065551 0.065551 -0.065551
-0.065551 -0.065551 0.065551
0.065551 -0.065551 0.065551
-0.065551 0.065551 0.065551
0.065551 0.065551 0.065551
-0.098327 -0.131103 -0.131103
-0.065551 -0.098327 -0.131103
-0.098327 -0.065551 -0.131103
-0.131103 -0.098327 -0.131103
-0.098327 -0.131103 -0.065551
-0.065551 -0.098327 -0.065551
-0.098327 -0.065551 -0.065551
-0.131103 -0.098327 -0.065551
-0.131103 -0.131103 -0.098327
-0.065551 -0.131103 -0.098327
-0.065551 -0.065551 -0.098327
-0.131103 -0.065551 -0.098327
-0.032776 -0.131103 -0.131103
0.000000 -0.098327 -0.131103
-0.032776 -0.065551 -0.131103
-0.032776 -0.131103 -0.065551
0.000000 -0.098327 -0.065551
-0.032776 -0.065551 -0.065551
0.000000 -0.131103 -0.098327
0.000000 -0.065551 -0.098327
-0.065551 -0.032776 -0.131103
-0.098327 0.000000 -0.131103
-0.131103 -0.032776 -0.131103
-0.065551 -0.032776 -0.065551
-0.098327 0.000000 -0.065551
-0.131103 -0.032776 -0.065551
-0.065551 0.000000 -0.098327
-0.131103 0.000000 -0.098327
0.000000 -0.032776 -0.131103
-0.032776 0.000000 -0.131103
0.000000 -0.032776 -0.065551
-0.032776 0.000000 -0.065551
0.000000 0.000000 -0.098327
-0.098327 -0.131103 0.000000
-0.065551 -0.098327 -0.000000
-0.098327 -0.065551 -0.000000
-0.131103 -0.098327 0.000000
-0.131103 -0.131103 -0.032776
-0.065551 -0.131103 -0.032776
-0.065551 -0.065551 -0.032776
-0.131103 -0.065551 -0.032776
-0.032776 -0.131103 0.000000
0.000000 -0.098327 -0.000000
-0.032776 -0.065551 -0.000000
0.000000 -0.131103 -0.032776
0.000000 -0.065551 -0.032776
-0.065551 -0.032776 -0.000000
-0.098327 0.000000 -0.000000
-0.131103 -0.032776 0.000000
-0.065551 0.000000 -0.032776
-0.131103 0.000000 -0.032776
0.000000 -0.032776 -0.000000
-0.032776 0.000000 -0.000000
0.000000 0.000000 -0.032776
0.032776 -0.131103 -0.131103
0.065551 -0.098327 -0.131103
0.032776 -0.065551 -0.131103
0.032776 -0.131103 -0.065551
0.065551 -0.098327 -0.065551
0.032776 -0.065551 -0.065551
0.065551 -0.131103 -0.098327
0.065551 -0.065551 -0.098327
0.098327 -0.131103 -0.131103
0.131103 -0.098327 -0.131103
0.098327 -0.065551 -0.131103
0.098327 -0.131103 -0.065551
0.131103 -0.098327 -0.065551
0.098327 -0.065551 -0.065551
0.131103 -0.131103 -0.098327
0.131103 -0.065551 -0.098327
0.065551 -0.032776 -0.131103
0.032776 0.000000 -0.131103
0.065551 -0.032776 -0.065551
0.032776 0.000000 -0.065551
0.065551 0.000000 -0.098327
0.131103 -0.032776 -0.131103
0.098327 0.000000 -0.131103
0.131103 -0.032776 -0.065551
0.098327 0.000000 -0.065551
0.131103 0.000000 -0.098327
0.032776 -0.131103 0.000000
0.065551 -0.098327 -0.000000
0.032776 -0.065551 -0.000000
0.065551 -0.131103 -0.032776
0.065551 -0.065551 -0.032776
0.098327 -0.131103 0.000000
0.131103 -0.098327 0.000000
0.098327 -0.065551 -0.000000
0.131103 -0.131103 -0.032776
0.131103 -0.065551 -0.032776
0.065551 -0.032776 -0.000000
0.032776 0.000000 -0.000000
0.065551 0.000000 -0.032776
0.131103 -0.032776 0.000000
0.098327 0.000000 -0.000000
0.131103 0.000000 -0.032776
-0.065551 0.032776 -0.131103
-0.098327 0.065551 -0.131103
-0.131103 0.032776 -0.131103
-0.065551 0.032776 -0.065551
-0.098327 0.065551 -0.065551
-0.131103 0.032776 -0.065551
-0.065551 0.065551 -0.098327
-0.131103 0.065551 -0.098327
0.000000 0.032776 -0.131103
-0.032776 0.065551 -0.131103
0.000000 0.032776 -0.065551
-0.032776 0.065551 -0.065551
0.000000 0.065551 -0.098327
-0.065551 0.098327 -0.131103
-0.098327 0.131103 -0.131103
-0.131103 0.098327 -0.131103
-0.065551 0.098327 -0.065551
-0.098327 0.131103 -0.065551
-0.131103 0.098327 -0.065551
-0.065551 0.131103 -0.098327
-0.131103 0.131103 -0.098327
0.000000 0.098327 -0.131103
-0.032776 0.131103 -0.131103
0.000000 0.098327 -0.065551
-0.032776 0.131103 -0.065551
0.000000 0.131103 -0.098327
-0.065551 0.032776 -0.000000
-0.098327 0.065551 -0.000000
-0.131103 0.032776 0.000000
-0.065551 0.065551 -0.032776
-0.131103 0.065551 -0.032776
0.000000 0.032776 -0.000000
-0.032776 0.065551 -0.000000
0.000000 0.065551 -0.032776
-0.065551 0.098327 -0.000000
-0.098327 0.131103 0.000000
-0.131103 0.098327 0.000000
-0.065551 0.131103 -0.032776
-0.131103 0.131103 -0.032776
0.000000 0.098327 -0.000000
-0.032776 0.131103 0.000000
0.000000 0.131103 -0.032776
0.065551 0.032776 -0.131103
0.032776 0.065551 -0.131103
0.065551 0.032776 -0.065551
0.032776 0.065551 -0.065551
0.065551 0.065551 -0.098327
0.131103 0.032776 -0.131103
0.098327 0.065551 -0.131103
0.131103 0.032776 -0.065551
0.098327 0.065551 -0.065551
0.131103 0.065551 -0.098327
0.065551 0.098327 -0.131103
0.032776 0.131103 -0.131103
0.065551 0.098327 -0.065551
0.032776 0.131103 -0.065551
0.065551 0.131103 -0.098327
0.131103 0.098327 -0.131103
0.098327 0.131103 -0.131103
0.131103 0.098327 -0.065551
0.098327 0.131103 -0.065551
0.131103 0.131103 -0.098327
0.065551 0.032776 -0.000000
0.032776 0.065551 -0.000000
0.065551 0.065551 -0.032776
0.131103 0.032776 0.000000
0.098327 0.065551 -0.000000
0.131103 0.065551 -0.032776
0.065551 0.098327 -0.000000
0.032776 0.131103 0.000000
0.065551 0.131103 -0.032776
0.131103 0.098327 0.000000
0.098327 0.131103 0.000000
0.131103 0.131103 -0.032776
-0.098327 -0.131103 0.065551
-0.065551 -0.098327 0.065551
-0.098327 -0.065551 0.065551
-0.131103 -0.098327 0.065551
-0.131103 -0.131103 0.032776
-0.065551 -0.131103 0.032776
-0.065551 -0.065551 0.032776
-0.131103 -0.065551 0.032776
-0.032776 -0.131103 0.065551
0.000000 -0.098327 0.065551
-0.032776 -0.065551 0.065551
0.000000 -0.131103 0.032776
0.000000 -0.065551 0.032776
-0.065551 -0.032776 0.065551
-0.098327 0.000000 0.065551
-0.131103 -0.032776 0.065551
-0.065551 0.000000 0.032776
-0.131103 0.000000 0.032776
0.000000 -0.032776 0.065551
-0.032776 0.000000 0.065551
0.000000 0.000000 0.032776
-0.098327 -0.131103 0.131103
-0.065551 -0.098327 0.131103
-0.098327 -0.065551 0.131103
-0.131103 -0.098327 0.131103
-0.131103 -0.131103 0.098327
-0.065551 -0.131103 0.098327
-0.065551 -0.065551 0.098327
-0.131103 -0.065551 0.098327
-0.032776 -0.131103 0.131103
0.000000 -0.098327 0.131103
-0.032776 -0.065551 0.131103
0.000000 -0.131103 0.098327
0.000000 -0.065551 0.098327
-0.065551 -0.032776 0.131103
-0.098327 0.000000 0.131103
-0.131103 -0.032776 0.131103
-0.065551 0.000000 0.098327
-0.131103 0.000000 0.098327
0.000000 -0.032776 0.131103
-0.032776 0.000000 0.131103
0.000000 0.000000 0.098327
0.032776 -0.131103 0.065551
0.065551 -0.098327 0.065551
0.032776 -0.065551 0.065551
0.065551 -0.131103 0.032776
0.065551 -0.065551 0.032776
0.098327 -0.131103 0.065551
0.131103 -0.098327 0.065551
0.098327 -0.065551 0.065551
0.131103 -0.131103 0.032776
0.131103 -0.065551 0.032776
[...]
CELL_DATA 512
SCALARS para double
LOOKUP_TABLE default
17241.379310
344.827586
17241.379310
344.827586
17241.379310
344.827586
17241.379310
344.827586
344.827586
17241.379310
344.827586
17241.379310
344.827586
17241.379310
344.827586
17241.379310
17241.379310
344.827586
17241.379310
344.827586
17241.379310
344.827586
17241.379310
344.827586
344.827586
17241.379310
344.827586
17241.379310
344.827586
17241.379310
344.827586
17241.379310
17241.379310
344.827586
17241.379310
344.827586
17241.379310
344.827586
17241.379310
344.827586
344.827586
17241.379310
344.827586
17241.379310
344.827586
17241.379310
344.827586
17241.379310
17241.379310
344.827586
17241.379310
344.827586
17241.379310
344.827586
17241.379310
344.827586
344.827586
17241.379310
344.827586
17241.379310
344.827586
17241.379310
344.827586
17241.379310
17241.379310
344.827586
17241.379310
344.827586
17241.379310
344.827586
17241.379310
344.827586
344.827586
17241.379310
344.827586
17241.379310
344.827586
17241.379310
344.827586
17241.379310
17241.379310
344.827586
17241.379310
344.827586
17241.379310
344.827586
17241.379310
344.827586
344.827586
17241.379310
344.827586
17241.379310
344.827586
17241.379310
344.827586
17241.379310
17241.379310
344.827586
17241.379310
344.827586
17241.379310
344.827586
17241.379310
344.827586
344.827586
17241.379310
344.827586
17241.379310
344.827586
17241.379310
344.827586
17241.379310
17241.379310
344.827586
17241.379310
344.827586
17241.379310
344.827586
17241.379310
344.827586
344.827586
17241.379310
344.827586
17241.379310
344.827586
17241.379310
344.827586
17241.379310
17241.379310
344.827586
17241.379310
344.827586
17241.379310
344.827586
17241.379310
344.827586
344.827586
17241.379310
344.827586
17241.379310
344.827586
17241.379310
344.827586
17241.379310
17241.379310
344.827586
17241.379310
344.827586
17241.379310
344.827586
17241.379310
344.827586
344.827586
17241.379310
344.827586
17241.379310
344.827586
17241.379310
344.827586
17241.379310
17241.379310
344.827586
17241.379310
344.827586
17241.379310
344.827586
17241.379310
344.827586
344.827586
17241.379310
344.827586
17241.379310
344.827586
17241.379310
344.827586
17241.379310
17241.379310
344.827586
17241.379310
344.827586
17241.379310
344.827586
17241.379310
344.827586
344.827586
17241.379310
344.827586
17241.379310
344.827586
17241.379310
344.827586
17241.379310
17241.379310
344.827586
17241.379310
344.827586
17241.379310
344.827586
17241.379310
344.827586
344.827586
17241.379310
344.827586
17241.379310
344.827586
17241.379310
344.827586
17241.379310
17241.379310
344.827586
17241.379310
344.827586
17241.379310
344.827586
17241.379310
344.827586
344.827586
17241.379310
344.827586
17241.379310
344.827586
17241.379310
344.827586
17241.379310
17241.379310
344.827586
17241.379310
344.827586
17241.379310
344.827586
17241.379310
344.827586
344.827586
17241.379310
344.827586
17241.379310
344.827586
17241.379310
344.827586
17241.379310
17241.379310
344.827586
17241.379310
344.827586
17241.379310
344.827586
17241.379310
344.827586
344.827586
17241.379310
344.827586
17241.379310
344.827586
17241.379310
344.827586
17241.379310
17241.379310
344.827586
17241.379310
344.827586
17241.379310
344.827586
17241.379310
344.827586
344.827586
17241.379310
344.827586
17241.379310
344.827586
17241.379310
344.827586
17241.379310
17241.379310
344.827586
17241.379310
344.827586
17241.379310
344.827586
17241.379310
344.827586
344.827586
17241.379310
344.827586
17241.379310
344.827586
17241.379310
344.827586
17241.379310
17241.379310
344.827586
17241.379310
344.827586
17241.379310
344.827586
17241.379310
344.827586
344.827586
17241.379310
344.827586
17241.379310
344.827586
17241.379310
344.827586
17241.379310
17241.379310
344.827586
17241.379310
344.827586
17241.379310
344.827586
17241.379310
344.827586
344.827586
17241.379310
344.827586
17241.379310
344.827586
17241.379310
344.827586
17241.379310
17241.379310
344.827586
17241.379310
344.827586
17241.379310
344.827586
17241.379310
344.827586
344.827586
17241.379310
344.827586
17241.379310
344.827586
17241.379310
344.827586
17241.379310
17241.379310
344.827586
17241.379310
344.827586
17241.379310
344.827586
17241.379310
344.827586
344.827586
17241.379310
344.827586
17241.379310
344.827586
17241.379310
344.827586
17241.379310
17241.379310
344.827586
17241.379310
344.827586
17241.379310
344.827586
17241.379310
344.827586
344.827586
17241.379310
344.827586
17241.379310
344.827586
17241.379310
344.827586
17241.379310
17241.379310
344.827586
17241.379310
344.827586
17241.379310
344.827586
17241.379310
344.827586
344.827586
17241.379310
344.827586
17241.379310
344.827586
17241.379310
344.827586
17241.379310
17241.379310
344.827586
17241.379310
344.827586
17241.379310
344.827586
17241.379310
344.827586
344.827586
17241.379310
344.827586
17241.379310
344.827586
17241.379310
344.827586
17241.379310
17241.379310
344.827586
17241.379310
344.827586
17241.379310
344.827586
17241.379310
344.827586
344.827586
17241.379310
344.827586
17241.379310
344.827586
17241.379310
344.827586
17241.379310
17241.379310
344.827586
17241.379310
344.827586
17241.379310
344.827586
17241.379310
344.827586
344.827586
17241.379310
344.827586
17241.379310
344.827586
17241.379310
344.827586
17241.379310
17241.379310
344.827586
17241.379310
344.827586
17241.379310
344.827586
17241.379310
344.827586
344.827586
17241.379310
344.827586
17241.379310
344.827586
17241.379310
344.827586
17241.379310
17241.379310
344.827586
17241.379310
344.827586
17241.379310
344.827586
17241.379310
344.827586
344.827586
17241.379310
344.827586
17241.379310
344.827586
17241.379310
344.827586
17241.379310
17241.379310
344.827586
17241.379310
344.827586
17241.379310
344.827586
17241.379310
344.827586
344.827586
17241.379310
344.827586
17241.379310
344.827586
17241.379310
344.827586
17241.379310
17241.379310
344.827586
17241.379310
344.827586
17241.379310
344.827586
17241.379310
344.827586
344.827586
17241.379310
344.827586
17241.379310
344.827586
17241.379310
344.827586
17241.379310
17241.379310
344.827586
17241.379310
344.827586
17241.379310
344.827586
17241.379310
344.827586
344.827586
17241.379310
344.827586
17241.379310
344.827586
17241.379310
344.827586
17241.379310
